# vtk DataFile Version 2.0
Data set from ImportExport Version 6.5.168.17c9382a4
ASCII

DATASET RECTILINEAR_GRID
DIMENSIONS 121 121 121
X_COORDINATES 121 float
-0.125000 0.125000 0.375000 0.625000 0.875000 1.125000 1.375000 1.625000 1.875000 2.125000 2.375000 2.625000 2.875000 3.125000 3.375000 3.625000 3.875000 4.125000 4.375000 4.625000 4.875000 
5.125000 5.375000 5.625000 5.875000 6.125000 6.375000 6.625000 6.875000 7.125000 7.375000 7.625000 7.875000 8.125000 8.375000 8.625000 8.875000 9.125000 9.375000 9.625000 9.875000 
10.125000 10.375000 10.625000 10.875000 11.125000 11.375000 11.625000 11.875000 12.125000 12.375000 12.625000 12.875000 13.125000 13.375000 13.625000 13.875000 14.125000 14.375000 14.625000 14.875000 
15.125000 15.375000 15.625000 15.875000 16.125000 16.375000 16.625000 16.875000 17.125000 17.375000 17.625000 17.875000 18.125000 18.375000 18.625000 18.875000 19.125000 19.375000 19.625000 19.875000 
20.125000 20.375000 20.625000 20.875000 21.125000 21.375000 21.625000 21.875000 22.125000 22.375000 22.625000 22.875000 23.125000 23.375000 23.625000 23.875000 24.125000 24.375000 24.625000 24.875000 
25.125000 25.375000 25.625000 25.875000 26.125000 26.375000 26.625000 26.875000 27.125000 27.375000 27.625000 27.875000 28.125000 28.375000 28.625000 28.875000 29.125000 29.375000 29.625000 29.875000 

Y_COORDINATES 121 float
-0.125000 0.125000 0.375000 0.625000 0.875000 1.125000 1.375000 1.625000 1.875000 2.125000 2.375000 2.625000 2.875000 3.125000 3.375000 3.625000 3.875000 4.125000 4.375000 4.625000 4.875000 
5.125000 5.375000 5.625000 5.875000 6.125000 6.375000 6.625000 6.875000 7.125000 7.375000 7.625000 7.875000 8.125000 8.375000 8.625000 8.875000 9.125000 9.375000 9.625000 9.875000 
10.125000 10.375000 10.625000 10.875000 11.125000 11.375000 11.625000 11.875000 12.125000 12.375000 12.625000 12.875000 13.125000 13.375000 13.625000 13.875000 14.125000 14.375000 14.625000 14.875000 
15.125000 15.375000 15.625000 15.875000 16.125000 16.375000 16.625000 16.875000 17.125000 17.375000 17.625000 17.875000 18.125000 18.375000 18.625000 18.875000 19.125000 19.375000 19.625000 19.875000 
20.125000 20.375000 20.625000 20.875000 21.125000 21.375000 21.625000 21.875000 22.125000 22.375000 22.625000 22.875000 23.125000 23.375000 23.625000 23.875000 24.125000 24.375000 24.625000 24.875000 
25.125000 25.375000 25.625000 25.875000 26.125000 26.375000 26.625000 26.875000 27.125000 27.375000 27.625000 27.875000 28.125000 28.375000 28.625000 28.875000 29.125000 29.375000 29.625000 29.875000 

Z_COORDINATES 121 float
-0.125000 0.125000 0.375000 0.625000 0.875000 1.125000 1.375000 1.625000 1.875000 2.125000 2.375000 2.625000 2.875000 3.125000 3.375000 3.625000 3.875000 4.125000 4.375000 4.625000 4.875000 
5.125000 5.375000 5.625000 5.875000 6.125000 6.375000 6.625000 6.875000 7.125000 7.375000 7.625000 7.875000 8.125000 8.375000 8.625000 8.875000 9.125000 9.375000 9.625000 9.875000 
10.125000 10.375000 10.625000 10.875000 11.125000 11.375000 11.625000 11.875000 12.125000 12.375000 12.625000 12.875000 13.125000 13.375000 13.625000 13.875000 14.125000 14.375000 14.625000 14.875000 
15.125000 15.375000 15.625000 15.875000 16.125000 16.375000 16.625000 16.875000 17.125000 17.375000 17.625000 17.875000 18.125000 18.375000 18.625000 18.875000 19.125000 19.375000 19.625000 19.875000 
20.125000 20.375000 20.625000 20.875000 21.125000 21.375000 21.625000 21.875000 22.125000 22.375000 22.625000 22.875000 23.125000 23.375000 23.625000 23.875000 24.125000 24.375000 24.625000 24.875000 
25.125000 25.375000 25.625000 25.875000 26.125000 26.375000 26.625000 26.875000 27.125000 27.375000 27.625000 27.875000 28.125000 28.375000 28.625000 28.875000 29.125000 29.375000 29.625000 29.875000 

CELL_DATA 1728000
SCALARS EulerAngles float 3
LOOKUP_TABLE default
 0 0 0 1.46411 0.611043 0.318379 6.25408 2.68125 0.183189 1.27364 1.18346 3.34673 5.27495 1.43405 2.55227 2.56601 1.68613 1.59821 3.86048 1.25309
 4.98944 5.70786 2.26237 3.34955 0.93649 2.56418 3.66875 2.40132 0.888961 3.26071 1.85903 1.34501 5.62601 0.997838 2.77778 5.67301 1.58444 1.58996 6.16677 5.89546
 1.37923 3.38218 4.12177 1.84311 5.99627 1.80477 1.0795 2.2281 5.32477 1.31404 4.67462 2.37317 2.52839 4.78424 2.70874 1.82905 6.09573 3.95145 0.755263 4.70048
 3.26289 1.57228 4.97958 2.03554 3.11336 6.21915 4.31657 2.26648 3.67643 2.68527 0.663624 1.66793 4.11444 2.02042 5.62778 3.74367 1.02342 0.866062 3.83483 0.752592
 1.74059 5.53556 1.47084 4.11099 0.0680926 2.29902 0.732409 5.88922 1.90553 2.85538 5.75457 1.76318 3.52982 5.13785 1.55401 2.431 5.69625 1.76171 6.03489 5.57133
 2.40301 1.6455 0.0676402 2.20212 1.58228 6.03363 1.9293 3.18889 4.9319 1.00983 5.28279 1.30292 2.47457 1.75616 0.741494 1.94081 2.9289 1.04468 1.91171 1.75399
 1.04305 1.66099 1.2954 3.74644 2.81749 1.64116 0.400327 1.14457 6.17419 1.01197 1.75626 1.25381 1.27121 0.941807 5.52935 1.84178 0.883057 3.18537 5.51358 2.12766
 2.01676 5.18904 1.68492 6.14045 5.25701 2.93981 0.583059 4.24356 1.10142 4.65935 2.56735 1.63383 2.2115 0.497431 1.8144 0.866114 5.82839 2.70264 1.03208 4.83499
 1.46626 0.517087 5.19025 2.13092 4.09765 0.254115 2.45562 4.64307 6.06874 1.27113 4.23675 6.24091 1.24696 4.37815 1.66468 0.403504 3.08019 1.11712 1.59338 3.83022
 5.92222 1.49365 4.99946 0.73244 1.61798 1.3924 1.38894 1.10357 0.334847 5.86455 2.71952 0.460738 0.768614 2.22664 5.58512 1.30294 0.645894 3.55051 1.45329 1.75953
 2.02016 5.95569 2.22535 0.147999 5.79714 0.282519 2.09919 1.43386 1.35393 0.215999 0.0214821 1.83953 3.78348 4.51955 0.604089 5.22074 4.72877 1.28556 1.57402 6.28116
 2.13058 0.18176 4.14049 0.524723 5.92838 5.70873 1.30501 2.46579 2.8316 1.54981 5.58165 1.12753 1.8115 1.70894 1.96883 1.26212 1.45635 3.26391 1.66052 5.92827
 4.79273 1.28022 3.24784 2.89259 1.61304 5.38723 5.36296 1.37194 1.49055 0.895298 1.34368 0.734706 0.637742 2.25042 1.58474 1.49181 1.35304 6.26924 3.6122 2.03378
 3.97328 3.73008 2.02342 1.91976 1.81499 0.994193 5.66674 4.69121 0.210883 4.02619 4.78948 0.371143 1.16355 5.76472 1.54057 1.9996 5.27495 1.43405 2.55227 2.52715
 0.676477 3.6912 2.40336 1.43034 0.392215 0.711216 2.52134 2.55678 1.09522 2.67953 1.86605 0.263253 1.66351 3.36802 3.73484 2.32358 0.170443 1.76131 2.53704 3.46846
 4.49746 2.0514 1.4589 1.10848 1.58232 4.79772 6.02391 1.2918 0.118249 4.06455 1.82799 3.55219 2.76771 1.81254 2.04009 5.34984 0.291605 5.36465 0.66132 2.42829
 0.434145 2.59276 0.927674 2.14353 2.43625 2.07172 6.07058 1.87615 0.343504 3.64849 4.69834 1.00631 5.63113 3.45839 1.81671 1.27451 2.04989 1.46149 4.57391 3.85298
 1.79768 1.65815 4.73909 1.28164 5.27516 3.61917 2.59194 2.86264 5.19866 0.520622 4.01024 0.64168 1.97315 0.0553261 0.471361 2.04727 6.17208 2.37357 1.84275 5.93304
 0.584824 1.68661 0.0982628 1.99187 0.104206 4.59125 1.73471 2.78236 4.86644 3.63547 1.86821 2.45709 0.99346 2.19317 0.356144 5.19866 0.520622 4.01024 5.77832 1.65216
 5.30692 2.0478 2.07692 5.10065 1.56431 2.3584 5.39793 3.45354 1.02015 5.39024 5.18942 2.21765 2.58481 3.32787 0.919471 1.73368 0.110398 2.33112 5.53661 2.74282
 1.73636 1.73586 2.7505 2.21592 4.2844 4.26267 1.75781 1.70753 4.36461 0.857395 3.13705 4.6553 2.44535 5.79882 5.67849 0.938167 3.26418 3.21433 2.61092 3.23009
 0.708505 0.463295 4.53751 0.813883 1.60182 0.201427 4.02123 1.57149 4.09772 2.41186 1.4415 5.31221 2.04931 1.29395 5.8515 2.50343 0.0525479 3.24356 4.12177 1.84311
 5.99627 5.55078 1.71137 0.234772 4.80234 2.55321 1.90842 1.04305 1.66099 1.2954 4.16478 2.0184 3.61273 0.00373667 0.686392 5.50872 0.225458 1.37129 3.34506 3.4361
 1.23252 0.17363 2.11229 1.13852 5.81852 3.99473 1.50728 2.73367 2.11623 1.15245 2.22656 0.211941 1.3366 1.14802 2.51213 1.24836 1.33349 0.551474 1.91173 2.82411
 1.15302 1.38022 2.50987 4.17535 2.7166 0.434212 1.38874 0.470415 1.10077 3.9494 1.53122 0.714948 0.119397 0.359447 1.00699 2.02814 1.48004 5.33282 5.25178 1.43271
 2.07598 0.643254 2.69896 3.54283 1.89826 2.52942 5.81296 4.26229 1.58927 5.81286 4.86393 0.810457 5.73907 3.26289 1.57228 4.97958 0.411664 1.3176 5.19237 5.50119
 1.51036 4.29538 0.518573 1.47627 5.14028 5.25987 2.09682 0.399421 2.41108 2.12415 5.89343 0.190084 1.36939 3.9648 0.254963 1.48148 0.266645 1.93667 2.01177 0.379087
 2.27161 1.22805 1.61447 0.0867061 1.3033 4.71004 5.78716 1.8156 2.89912 2.48507 0.980416 3.71558 0.40596 1.12194 1.98915 2.04729 1.2523 3.62208 5.19866 0.520622
 4.01024 2.26675 1.89354 6.05316 2.87879 1.99403 5.53194 0.178955 1.28569 2.71325 5.31466 1.24081 5.59446 2.59847 0.982508 3.51517 6.23474 1.99757 5.72204 2.12391
 2.63636 1.08381 1.73521 2.21439 0.253667 4.95028 1.05198 1.08686 5.40491 1.67124 5.70622 5.60089 1.16961 0.137903 2.91056 2.42242 2.6201 4.01589 1.74397 0.185397
 3.81148 2.56014 5.13032 3.02891 2.53334 1.0049 5.1192 0.553155 0.515267 0.783528 2.13589 5.86446 3.56058 2.12451 6.26433 5.24875 1.96958 6.0313 2.50604 0.80696
 1.36946 2.50893 1.49526 5.40736 2.89259 1.61304 5.38723 2.84772 1.52418 2.76587 6.1004 1.10541 5.20805 6.10679 1.33903 3.28672 3.28217 1.55656 5.19258 5.66927
 2.9771 3.26994 3.96043 2.23306 2.68697 5.36684 1.5464 4.44825 1.19038 2.86383 3.92307 5.29945 1.56223 3.17672 0.683545 1.55387 1.63209 5.91588 1.86638 4.02113
 0.336643 0.346548 4.3783 2.2733 1.646 5.83644 4.71814 1.20711 1.29525 2.3222 1.79588 4.06 3.09567 1.47208 0.370036 5.22014 1.29709 4.37382 2.56735 1.63383
 2.2115 4.61414 0.732597 1.39385 1.67411 1.8393 1.84786 3.92504 1.58626 1.47944 2.65337 0.996682 1.01408 2.51583 2.04214 5.37744 5.41671 1.81814 2.25847 3.20966
 1.78363 3.67394 1.88824 2.54968 3.06076 3.60714 1.3544 4.53434 2.02355 3.0536 4.68561 3.33985 2.09749 3.67039 1.37719 1.72665 0.856986 5.76815 0.851051 5.9766
 4.02727 1.43317 1.12709 1.41829 2.34483 6.2402 3.92303 1.19831 4.64495 4.80408 2.27528 3.21318 2.72874 1.44863 5.75078 2.65322 1.39051 5.76678 0.92731 2.75462
 4.29052 3.35326 2.66016 0.667618 4.98099 1.69582 0.315161 0.53605 1.64782 5.57164 5.53379 1.37539 5.29626 3.64817 2.09215 2.05813 3.07338 1.99883 2.58844 0.665664
 0.687409 3.68058 2.17657 1.57314 0.817076 1.0966 2.01872 5.69748 5.08423 0.981814 4.90701 2.25264 1.48136 5.61371 1.22234 1.94842 3.75996 3.26158 2.13054 2.68822
 0.636568 1.11259 4.03366 2.12391 2.63636 1.08381 0.536429 1.12474 2.1251 4.77278 1.93098 0.113811 4.04423 1.80932 3.5954 0.457127 0.953467 0.307653 5.69073 1.9067
 0.219348 2.54662 2.25258 6.10612 0.986853 2.21641 2.56616 0.435199 1.83698 0.979197 0.904348 0.632492 4.17961 0.226715 1.87369 5.12217 5.66732 1.90385 3.63592 5.30618
 1.60826 4.69188 5.46061 1.16598 1.3715 5.55078 1.71137 0.234772 4.06541 1.34381 0.515717 0.411894 0.958291 4.39246 4.46732 1.01665 5.6169 4.36461 0.857395 3.13705
 5.11343 1.73308 4.64861 0.500064 2.56988 3.93433 3.58139 1.042 6.21489 2.41102 1.6889 6.15675 4.57402 2.24647 0.463329 4.25143 1.93808 1.42726 1.69179 2.55642
 3.91276 0.890388 2.71986 3.05594 3.00632 0.0648416 2.07085 5.95982 1.16944 0.464828 6.11488 2.11523 6.18304 3.39078 1.44932 4.9782 4.79501 1.42116 4.60585 0.924964
 1.97172 4.4377 2.69067 1.66452 3.68386 1.45329 1.75953 2.02016 0.406856 1.3823 6.08319 5.42555 1.47516 5.55398 6.10679 1.33903 3.28672 5.89784 1.61332 4.44533
 0.201871 1.1508 1.73725 4.62561 1.96354 5.13841 6.13611 1.21422 4.3059 3.7096 0.781865 4.23234 0.535947 1.00882 3.12693 2.09532 1.94716 1.51568 5.88955 0.536162
 4.09278 5.78629 0.956581 5.13499 0.291991 1.32468 0.736709 5.77867 2.12236 5.12434 2.8406 1.10022 2.20425 3.95319 0.838516 3.36803 2.7221 0.918645 1.00361 2.17688
 0.98999 5.75946 0.708606 1.84493 2.03438 1.56401 1.10001 2.58404 0.560806 1.5346 0.103963 1.59186 1.67604 4.13293 5.72004 2.88103 0.496656 3.85195 1.77 5.98916
 2.13826 1.49911 1.14062 4.53429 0.73656 2.07336 5.88655 1.85955 1.05197 3.4843 1.60438 6.0217 2.21897 1.40632 3.50177 5.77867 2.12236 5.12434 2.31389 0.893949
 4.86468 3.12327 1.02987 1.60515 2.67675 1.4559 1.59966 1.66558 0.481502 0.0526116 5.66426 1.2272 0.832807 4.71568 1.17661 0.271515 5.34728 1.3429 4.79625 1.77511
 1.22175 6.07171 5.05743 1.54016 1.15015 3.28762 2.29501 2.72427 0.749668 1.98373 2.38362 2.28902 1.4286 0.461599 4.34558 2.08819 0.40846 0.793976 1.76564 2.85543
 1.00754 1.24977 0.693544 4.28844 1.40735 5.94318 5.34821 0.62317 1.58412 0.94125 2.56422 4.72344 5.05031 0.904606 2.3998 1.26223 1.33382 1.88428 3.50064 1.2968
 5.79424 5.5154 2.53862 5.47831
