# vtk DataFile Version 2.0
Data set from ImportExport Version 6.5.168.17c9382a4
ASCII

DATASET RECTILINEAR_GRID
DIMENSIONS 41 41 41
X_COORDINATES 41 float
-0.500000 0.500000 1.500000 2.500000 3.500000 4.500000 5.500000 6.500000 7.500000 8.500000 9.500000 10.500000 11.500000 12.500000 13.500000 14.500000 15.500000 16.500000 17.500000 18.500000 19.500000 
20.500000 21.500000 22.500000 23.500000 24.500000 25.500000 26.500000 27.500000 28.500000 29.500000 30.500000 31.500000 32.500000 33.500000 34.500000 35.500000 36.500000 37.500000 38.500000 39.500000 

Y_COORDINATES 41 float
-0.500000 0.500000 1.500000 2.500000 3.500000 4.500000 5.500000 6.500000 7.500000 8.500000 9.500000 10.500000 11.500000 12.500000 13.500000 14.500000 15.500000 16.500000 17.500000 18.500000 19.500000 
20.500000 21.500000 22.500000 23.500000 24.500000 25.500000 26.500000 27.500000 28.500000 29.500000 30.500000 31.500000 32.500000 33.500000 34.500000 35.500000 36.500000 37.500000 38.500000 39.500000 

Z_COORDINATES 41 float
-0.500000 0.500000 1.500000 2.500000 3.500000 4.500000 5.500000 6.500000 7.500000 8.500000 9.500000 10.500000 11.500000 12.500000 13.500000 14.500000 15.500000 16.500000 17.500000 18.500000 19.500000 
20.500000 21.500000 22.500000 23.500000 24.500000 25.500000 26.500000 27.500000 28.500000 29.500000 30.500000 31.500000 32.500000 33.500000 34.500000 35.500000 36.500000 37.500000 38.500000 39.500000 

CELL_DATA 64000
SCALARS EulerAngles_stat float 3
LOOKUP_TABLE default
 2.23134 2.37679 0.0246414 2.23134 2.37679 0.0246414 2.23134 2.37679 0.0246414 2.23134 2.37679 0.0246414 2.23134 2.37679 0.0246414 2.23134 2.37679 0.0246414 2.23134 2.37679
 0.0246414 2.23134 2.37679 0.0246414 2.23134 2.37679 0.0246414 2.23134 2.37679 0.0246414 2.23134 2.37679 0.0246414 2.23134 2.37679 0.0246414 2.23134 2.37679 0.0246414 2.23134
 2.37679 0.0246414 2.23134 2.37679 0.0246414 2.23134 2.37679 0.0246414 2.23134 2.37679 0.0246414 2.23134 2.37679 0.0246414 2.23134 2.37679 0.0246414 2.23134 2.37679 0.0246414
 2.37369 2.33136 4.48584 2.37369 2.33136 4.48584 2.37369 2.33136 4.48584 2.37369 2.33136 4.48584 2.37369 2.33136 4.48584 2.37369 2.33136 4.48584 2.37369 2.33136
 4.48584 2.37369 2.33136 4.48584 2.37369 2.33136 4.48584 2.37369 2.33136 4.48584 2.37369 2.33136 4.48584 2.37369 2.33136 4.48584 2.37369 2.33136 4.48584 2.37369
 2.33136 4.48584 2.37369 2.33136 4.48584 2.37369 2.33136 4.48584 2.37369 2.33136 4.48584 2.37369 2.33136 4.48584 2.37369 2.33136 4.48584 2.37369 2.33136 4.48584
 2.23134 2.37679 0.0246414 2.23134 2.37679 0.0246414 2.23134 2.37679 0.0246414 2.23134 2.37679 0.0246414 2.23134 2.37679 0.0246414 2.23134 2.37679 0.0246414 2.23134 2.37679
 0.0246414 2.23134 2.37679 0.0246414 2.23134 2.37679 0.0246414 2.23134 2.37679 0.0246414 2.23134 2.37679 0.0246414 2.23134 2.37679 0.0246414 2.23134 2.37679 0.0246414 2.23134
 2.37679 0.0246414 2.23134 2.37679 0.0246414 2.23134 2.37679 0.0246414 2.23134 2.37679 0.0246414 2.23134 2.37679 0.0246414 2.23134 2.37679 0.0246414 2.23134 2.37679 0.0246414
 2.37369 2.33136 4.48584 2.37369 2.33136 4.48584 2.37369 2.33136 4.48584 2.37369 2.33136 4.48584 2.37369 2.33136 4.48584 2.37369 2.33136 4.48584 2.37369 2.33136
 4.48584 2.37369 2.33136 4.48584 2.37369 2.33136 4.48584 2.37369 2.33136 4.48584 2.37369 2.33136 4.48584 2.37369 2.33136 4.48584 2.37369 2.33136 4.48584 2.37369
 2.33136 4.48584 2.37369 2.33136 4.48584 2.37369 2.33136 4.48584 2.37369 2.33136 4.48584 2.37369 2.33136 4.48584 2.37369 2.33136 4.48584 2.37369 2.33136 4.48584
 2.23134 2.37679 0.0246414 2.23134 2.37679 0.0246414 2.23134 2.37679 0.0246414 2.23134 2.37679 0.0246414 2.23134 2.37679 0.0246414 2.23134 2.37679 0.0246414 2.23134 2.37679
 0.0246414 2.23134 2.37679 0.0246414 2.23134 2.37679 0.0246414 2.23134 2.37679 0.0246414 2.23134 2.37679 0.0246414 2.23134 2.37679 0.0246414 2.23134 2.37679 0.0246414 2.23134
 2.37679 0.0246414 2.23134 2.37679 0.0246414 2.23134 2.37679 0.0246414 2.23134 2.37679 0.0246414 2.23134 2.37679 0.0246414 2.23134 2.37679 0.0246414 2.23134 2.37679 0.0246414
 2.37369 2.33136 4.48584 2.37369 2.33136 4.48584 2.37369 2.33136 4.48584 2.37369 2.33136 4.48584 2.37369 2.33136 4.48584 2.37369 2.33136 4.48584 2.37369 2.33136
 4.48584 2.37369 2.33136 4.48584 2.37369 2.33136 4.48584 2.37369 2.33136 4.48584 2.37369 2.33136 4.48584 2.37369 2.33136 4.48584 2.37369 2.33136 4.48584 2.37369
 2.33136 4.48584 2.37369 2.33136 4.48584 2.37369 2.33136 4.48584 2.37369 2.33136 4.48584 2.37369 2.33136 4.48584 2.37369 2.33136 4.48584 2.37369 2.33136 4.48584
 2.23134 2.37679 0.0246414 2.23134 2.37679 0.0246414 2.23134 2.37679 0.0246414 2.23134 2.37679 0.0246414 2.23134 2.37679 0.0246414 2.23134 2.37679 0.0246414 2.23134 2.37679
 0.0246414 2.23134 2.37679 0.0246414 2.23134 2.37679 0.0246414 2.23134 2.37679 0.0246414 2.23134 2.37679 0.0246414 2.23134 2.37679 0.0246414 2.23134 2.37679 0.0246414 2.23134
 2.37679 0.0246414 2.23134 2.37679 0.0246414 2.23134 2.37679 0.0246414 2.23134 2.37679 0.0246414 2.23134 2.37679 0.0246414 2.23134 2.37679 0.0246414 2.37369 2.33136 4.48584
 2.37369 2.33136 4.48584 2.37369 2.33136 4.48584 2.37369 2.33136 4.48584 2.37369 2.33136 4.48584 2.37369 2.33136 4.48584 2.37369 2.33136 4.48584 2.37369 2.33136
 4.48584 2.37369 2.33136 4.48584 2.37369 2.33136 4.48584 2.37369 2.33136 4.48584 2.37369 2.33136 4.48584 2.37369 2.33136 4.48584 2.37369 2.33136 4.48584 2.37369
 2.33136 4.48584 2.37369 2.33136 4.48584 2.37369 2.33136 4.48584 2.37369 2.33136 4.48584 2.37369 2.33136 4.48584 2.37369 2.33136 4.48584 2.37369 2.33136 4.48584
 2.23134 2.37679 0.0246414 2.23134 2.37679 0.0246414 2.23134 2.37679 0.0246414 2.23134 2.37679 0.0246414 2.23134 2.37679 0.0246414 2.23134 2.37679 0.0246414 2.23134 2.37679
 0.0246414 2.23134 2.37679 0.0246414 2.23134 2.37679 0.0246414 2.23134 2.37679 0.0246414 2.23134 2.37679 0.0246414 2.23134 2.37679 0.0246414 2.23134 2.37679 0.0246414 2.23134
 2.37679 0.0246414 2.23134 2.37679 0.0246414 2.23134 2.37679 0.0246414 2.23134 2.37679 0.0246414 2.23134 2.37679 0.0246414 2.23134 2.37679 0.0246414 2.37369 2.33136 4.48584
 2.37369 2.33136 4.48584 2.37369 2.33136 4.48584 2.37369 2.33136 4.48584 2.37369 2.33136 4.48584 2.37369 2.33136 4.48584 2.37369 2.33136 4.48584 2.37369 2.33136
 4.48584 2.37369 2.33136 4.48584 2.37369 2.33136 4.48584 2.37369 2.33136 4.48584 2.37369 2.33136 4.48584 2.37369 2.33136 4.48584 2.37369 2.33136 4.48584 2.37369
 2.33136 4.48584 2.37369 2.33136 4.48584 2.37369 2.33136 4.48584 2.37369 2.33136 4.48584 2.37369 2.33136 4.48584 2.37369 2.33136 4.48584 2.37369 2.33136 4.48584
 2.23134 2.37679 0.0246414 2.23134 2.37679 0.0246414 2.23134 2.37679 0.0246414 2.23134 2.37679 0.0246414 2.23134 2.37679 0.0246414 2.23134 2.37679 0.0246414 2.23134 2.37679
 0.0246414 2.23134 2.37679 0.0246414 2.23134 2.37679 0.0246414 2.23134 2.37679 0.0246414 2.23134 2.37679 0.0246414 2.23134 2.37679 0.0246414 2.23134 2.37679 0.0246414 2.23134
 2.37679 0.0246414 2.23134 2.37679 0.0246414 2.23134 2.37679 0.0246414 2.23134 2.37679 0.0246414 2.23134 2.37679 0.0246414 2.23134 2.37679 0.0246414 2.37369 2.33136 4.48584
 2.37369 2.33136 4.48584 2.37369 2.33136 4.48584 2.37369 2.33136 4.48584 2.37369 2.33136 4.48584 2.37369 2.33136 4.48584 2.37369 2.33136 4.48584 2.37369 2.33136
 4.48584 2.37369 2.33136 4.48584 2.37369 2.33136 4.48584 2.37369 2.33136 4.48584 2.37369 2.33136 4.48584 2.37369 2.33136 4.48584 2.37369 2.33136 4.48584 2.37369
 2.33136 4.48584 2.37369 2.33136 4.48584 2.37369 2.33136 4.48584 2.37369 2.33136 4.48584 2.37369 2.33136 4.48584 2.37369 2.33136 4.48584 2.37369 2.33136 4.48584
 2.23134 2.37679 0.0246414 2.23134 2.37679 0.0246414 2.23134 2.37679 0.0246414 2.23134 2.37679 0.0246414 2.23134 2.37679 0.0246414 2.23134 2.37679 0.0246414 2.23134 2.37679
 0.0246414 2.23134 2.37679 0.0246414 2.23134 2.37679 0.0246414 2.23134 2.37679 0.0246414 2.23134 2.37679 0.0246414 2.23134 2.37679 0.0246414 2.23134 2.37679 0.0246414 2.23134
 2.37679 0.0246414 2.23134 2.37679 0.0246414 2.23134 2.37679 0.0246414 2.23134 2.37679 0.0246414 2.23134 2.37679 0.0246414 2.23134 2.37679 0.0246414 2.37369 2.33136 4.48584
 2.37369 2.33136 4.48584 2.37369 2.33136 4.48584 2.37369 2.33136 4.48584 2.37369 2.33136 4.48584 2.37369 2.33136 4.48584 2.37369 2.33136 4.48584 2.37369 2.33136
 4.48584 2.37369 2.33136 4.48584 2.37369 2.33136 4.48584 2.37369 2.33136 4.48584 2.37369 2.33136 4.48584 2.37369 2.33136 4.48584 2.37369 2.33136 4.48584 2.37369
 2.33136 4.48584 2.37369 2.33136 4.48584 2.37369 2.33136 4.48584 2.37369 2.33136 4.48584 2.37369 2.33136 4.48584 2.37369 2.33136 4.48584 2.37369 2.33136 4.48584
 2.23134 2.37679 0.0246414 2.23134 2.37679 0.0246414 2.23134 2.37679 0.0246414 2.23134 2.37679 0.0246414 2.23134 2.37679 0.0246414 2.23134 2.37679 0.0246414 2.23134 2.37679
 0.0246414 2.23134 2.37679 0.0246414 2.23134 2.37679 0.0246414 2.23134 2.37679 0.0246414 2.23134 2.37679 0.0246414 2.23134 2.37679 0.0246414 2.23134 2.37679 0.0246414 2.23134
 2.37679 0.0246414 2.23134 2.37679 0.0246414 2.23134 2.37679 0.0246414 2.23134 2.37679 0.0246414 2.23134 2.37679 0.0246414 2.23134 2.37679 0.0246414 2.37369 2.33136 4.48584
 2.37369 2.33136 4.48584 2.37369 2.33136 4.48584 2.37369 2.33136 4.48584 2.37369 2.33136 4.48584 2.37369 2.33136 4.48584 2.37369 2.33136 4.48584 2.37369 2.33136
 4.48584 2.37369 2.33136 4.48584 2.37369 2.33136 4.48584 2.37369 2.33136 4.48584 2.37369 2.33136 4.48584 2.37369 2.33136 4.48584 2.37369 2.33136 4.48584 2.37369
 2.33136 4.48584 2.37369 2.33136 4.48584 2.37369 2.33136 4.48584 2.37369 2.33136 4.48584 2.37369 2.33136 4.48584 2.37369 2.33136 4.48584 2.37369 2.33136 4.48584
 2.23134 2.37679 0.0246414 2.23134 2.37679 0.0246414 2.23134 2.37679 0.0246414 2.23134 2.37679 0.0246414 2.23134 2.37679 0.0246414 2.23134 2.37679 0.0246414 2.23134 2.37679
 0.0246414 2.23134 2.37679 0.0246414 2.23134 2.37679 0.0246414 2.23134 2.37679 0.0246414 2.23134 2.37679 0.0246414 2.23134 2.37679 0.0246414 2.23134 2.37679 0.0246414 2.23134
 2.37679 0.0246414 2.23134 2.37679 0.0246414 2.23134 2.37679 0.0246414 2.23134 2.37679 0.0246414 2.23134 2.37679 0.0246414 2.37369 2.33136 4.48584 2.37369 2.33136 4.48584
 2.37369 2.33136 4.48584 2.37369 2.33136 4.48584 2.37369 2.33136 4.48584 2.37369 2.33136 4.48584 2.37369 2.33136 4.48584 2.37369 2.33136 4.48584 2.37369 2.33136
 4.48584 2.37369 2.33136 4.48584 2.37369 2.33136 4.48584 2.37369 2.33136 4.48584 2.37369 2.33136 4.48584 2.37369 2.33136 4.48584 2.37369 2.33136 4.48584 2.37369
 2.33136 4.48584 2.37369 2.33136 4.48584 2.37369 2.33136 4.48584 2.37369 2.33136 4.48584 2.37369 2.33136 4.48584 2.37369 2.33136 4.48584 2.37369 2.33136 4.48584
 2.23134 2.37679 0.0246414 2.23134 2.37679 0.0246414 2.23134 2.37679 0.0246414 2.23134 2.37679 0.0246414 2.23134 2.37679 0.0246414 2.23134 2.37679 0.0246414 2.23134 2.37679
 0.0246414 2.23134 2.37679 0.0246414 2.23134 2.37679 0.0246414 2.23134 2.37679 0.0246414 2.23134 2.37679 0.0246414 2.23134 2.37679 0.0246414 2.23134 2.37679 0.0246414 2.23134
 2.37679 0.0246414 2.23134 2.37679 0.0246414 2.23134 2.37679 0.0246414 2.23134 2.37679 0.0246414 2.23134 2.37679 0.0246414 2.37369 2.33136 4.48584 2.37369 2.33136 4.48584
 2.37369 2.33136 4.48584 2.37369 2.33136 4.48584 2.37369 2.33136 4.48584 2.37369 2.33136 4.48584 2.37369 2.33136 4.48584 2.37369 2.33136 4.48584 2.37369 2.33136
 4.48584 2.37369 2.33136 4.48584 2.37369 2.33136 4.48584 2.37369 2.33136 4.48584 2.37369 2.33136 4.48584 2.37369 2.33136 4.48584 2.37369 2.33136 4.48584 2.37369
 2.33136 4.48584 2.37369 2.33136 4.48584 2.37369 2.33136 4.48584 2.37369 2.33136 4.48584 2.37369 2.33136 4.48584 2.37369 2.33136 4.48584 2.37369 2.33136 4.48584
 2.23134 2.37679 0.0246414 2.23134 2.37679 0.0246414 2.23134 2.37679 0.0246414 2.23134 2.37679 0.0246414 2.23134 2.37679 0.0246414 2.23134 2.37679 0.0246414 2.23134 2.37679
 0.0246414 2.23134 2.37679 0.0246414 2.23134 2.37679 0.0246414 2.23134 2.37679 0.0246414 2.23134 2.37679 0.0246414 2.23134 2.37679 0.0246414 2.23134 2.37679 0.0246414 2.23134
 2.37679 0.0246414 2.23134 2.37679 0.0246414 2.23134 2.37679 0.0246414 2.23134 2.37679 0.0246414 2.37369 2.33136 4.48584 2.37369 2.33136 4.48584 2.37369 2.33136 4.48584
 2.37369 2.33136 4.48584 2.37369 2.33136 4.48584 2.37369 2.33136 4.48584 2.37369 2.33136 4.48584 2.37369 2.33136 4.48584 2.37369 2.33136 4.48584 2.37369 2.33136
 4.48584 2.37369 2.33136 4.48584 2.37369 2.33136 4.48584 2.37369 2.33136 4.48584 2.37369 2.33136 4.48584 2.37369 2.33136 4.48584 2.37369 2.33136 4.48584 2.37369
 2.33136 4.48584 2.37369 2.33136 4.48584 2.37369 2.33136 4.48584 2.37369 2.33136 4.48584 2.37369 2.33136 4.48584 2.37369 2.33136 4.48584 2.37369 2.33136 4.48584
 2.23134 2.37679 0.0246414 2.23134 2.37679 0.0246414 2.23134 2.37679 0.0246414 2.23134 2.37679 0.0246414 2.23134 2.37679 0.0246414 2.23134 2.37679 0.0246414 2.23134 2.37679
 0.0246414 2.23134 2.37679 0.0246414 2.23134 2.37679 0.0246414 2.23134 2.37679 0.0246414 2.23134 2.37679 0.0246414 2.23134 2.37679 0.0246414 2.23134 2.37679 0.0246414 2.23134
 2.37679 0.0246414 2.23134 2.37679 0.0246414 2.23134 2.37679 0.0246414 2.23134 2.37679 0.0246414 2.37369 2.33136 4.48584 2.37369 2.33136 4.48584 2.37369 2.33136 4.48584
 2.37369 2.33136 4.48584 2.37369 2.33136 4.48584 2.37369 2.33136 4.48584 2.37369 2.33136 4.48584 2.37369 2.33136 4.48584 2.37369 2.33136 4.48584 2.37369 2.33136
 4.48584 2.37369 2.33136 4.48584 2.37369 2.33136 4.48584 2.37369 2.33136 4.48584 2.37369 2.33136 4.48584 2.37369 2.33136 4.48584 2.37369 2.33136 4.48584 2.37369
 2.33136 4.48584 2.37369 2.33136 4.48584 2.37369 2.33136 4.48584 2.37369 2.33136 4.48584 2.37369 2.33136 4.48584 2.37369 2.33136 4.48584 2.37369 2.33136 4.48584
 2.23134 2.37679 0.0246414 2.23134 2.37679 0.0246414 2.23134 2.37679 0.0246414 2.23134 2.37679 0.0246414 2.23134 2.37679 0.0246414 2.23134 2.37679 0.0246414 2.23134 2.37679
 0.0246414 2.23134 2.37679 0.0246414 2.23134 2.37679 0.0246414 2.23134 2.37679 0.0246414 2.23134 2.37679 0.0246414 2.23134 2.37679 0.0246414 2.23134 2.37679 0.0246414 2.23134
 2.37679 0.0246414 2.23134 2.37679 0.0246414 2.3222 2.36088 1.17003 2.3222 2.36088 1.17003 2.37369 2.33136 4.48584 2.37369 2.33136 4.48584 2.37369 2.33136 4.48584
 2.37369 2.33136 4.48584 2.37369 2.33136 4.48584 2.37369 2.33136 4.48584 2.37369 2.33136 4.48584 2.37369 2.33136 4.48584 2.37369 2.33136 4.48584 2.37369 2.33136
 4.48584 2.37369 2.33136 4.48584 2.37369 2.33136 4.48584 2.37369 2.33136 4.48584 2.37369 2.33136 4.48584 2.37369 2.33136 4.48584 2.37369 2.33136 4.48584 2.37369
 2.33136 4.48584 2.37369 2.33136 4.48584 2.37369 2.33136 4.48584 2.37369 2.33136 4.48584 2.37369 2.33136 4.48584 2.37369 2.33136 4.48584 2.37369 2.33136 4.48584
 2.23134 2.37679 0.0246414 2.23134 2.37679 0.0246414 2.23134 2.37679 0.0246414 2.23134 2.37679 0.0246414 2.23134 2.37679 0.0246414 2.23134 2.37679 0.0246414 2.23134 2.37679
 0.0246414 2.23134 2.37679 0.0246414 2.23134 2.37679 0.0246414 2.23134 2.37679 0.0246414 2.23134 2.37679 0.0246414 2.3222 2.36088 1.17003 2.3222 2.36088 1.17003 2.3222
 2.36088 1.17003 2.3222 2.36088 1.17003 2.3222 2.36088 1.17003 2.3222 2.36088 1.17003 2.3222 2.36088 1.17003 2.37369 2.33136 4.48584 2.37369 2.33136 4.48584
 2.37369 2.33136 4.48584 2.37369 2.33136 4.48584 2.37369 2.33136 4.48584 2.37369 2.33136 4.48584 2.37369 2.33136 4.48584 2.37369 2.33136 4.48584 2.37369 2.33136
 4.48584 2.37369 2.33136 4.48584 2.37369 2.33136 4.48584 2.37369 2.33136 4.48584 2.37369 2.33136 4.48584 2.37369 2.33136 4.48584 2.37369 2.33136 4.48584 2.37369
 2.33136 4.48584 2.37369 2.33136 4.48584 2.37369 2.33136 4.48584 2.37369 2.33136 4.48584 2.37369 2.33136 4.48584 2.37369 2.33136 4.48584 2.37369 2.33136 4.48584
 2.23134 2.37679 0.0246414 2.23134 2.37679 0.0246414 2.23134 2.37679 0.0246414 2.23134 2.37679 0.0246414 2.23134 2.37679 0.0246414 2.3222 2.36088 1.17003 2.3222 2.36088
 1.17003 2.3222 2.36088 1.17003 2.3222 2.36088 1.17003 2.3222 2.36088 1.17003 2.3222 2.36088 1.17003 2.3222 2.36088 1.17003 2.3222 2.36088 1.17003 2.3222
 2.36088 1.17003 2.3222 2.36088 1.17003 2.3222 2.36088 1.17003 2.3222 2.36088 1.17003 2.3222 2.36088 1.17003 2.3222 2.36088 1.17003 2.37369 2.33136 4.48584
 2.37369 2.33136 4.48584 2.37369 2.33136 4.48584 2.37369 2.33136 4.48584 2.37369 2.33136 4.48584 2.37369 2.33136 4.48584 2.37369 2.33136 4.48584 2.37369 2.33136
 4.48584 2.37369 2.33136 4.48584 2.37369 2.33136 4.48584 2.37369 2.33136 4.48584 2.37369 2.33136 4.48584 2.37369 2.33136 4.48584 2.37369 2.33136 4.48584 2.37369
 2.33136 4.48584 2.37369 2.33136 4.48584 2.37369 2.33136 4.48584 2.37369 2.33136 4.48584 2.37369 2.33136 4.48584 2.37369 2.33136 4.48584 2.37369 2.33136 4.48584
 2.3222 2.36088 1.17003 2.3222 2.36088 1.17003 2.3222 2.36088 1.17003 2.3222 2.36088 1.17003 2.3222 2.36088 1.17003 2.3222 2.36088 1.17003 2.3222 2.36088
 1.17003 2.3222 2.36088 1.17003 2.3222 2.36088 1.17003 2.3222 2.36088 1.17003 2.3222 2.36088 1.17003 2.3222 2.36088 1.17003 2.3222 2.36088 1.17003 2.3222
 2.36088 1.17003 2.3222 2.36088 1.17003 2.3222 2.36088 1.17003 2.3222 2.36088 1.17003 2.3222 2.36088 1.17003 2.3222 2.36088 1.17003 2.3222 2.36088 1.17003
 2.37369 2.33136 4.48584 2.37369 2.33136 4.48584 2.37369 2.33136 4.48584 2.37369 2.33136 4.48584 2.37369 2.33136 4.48584 2.37369 2.33136 4.48584 2.37369 2.33136
 4.48584 2.37369 2.33136 4.48584 2.37369 2.33136 4.48584 2.37369 2.33136 4.48584 2.37369 2.33136 4.48584 2.37369 2.33136 4.48584 2.37369 2.33136 4.48584 2.37369
 2.33136 4.48584 2.37369 2.33136 4.48584 2.37369 2.33136 4.48584 2.37369 2.33136 4.48584 2.37369 2.33136 4.48584 2.37369 2.33136 4.48584 2.37369 2.33136 4.48584
 2.3222 2.36088 1.17003 2.3222 2.36088 1.17003 2.3222 2.36088 1.17003 2.3222 2.36088 1.17003 2.3222 2.36088 1.17003 2.3222 2.36088 1.17003 2.3222 2.36088
 1.17003 2.3222 2.36088 1.17003 2.3222 2.36088 1.17003 2.3222 2.36088 1.17003 2.3222 2.36088 1.17003 2.3222 2.36088 1.17003 2.3222 2.36088 1.17003 2.3222
 2.36088 1.17003 2.3222 2.36088 1.17003 2.3222 2.36088 1.17003 2.3222 2.36088 1.17003 2.3222 2.36088 1.17003 2.3222 2.36088 1.17003 2.3222 2.36088 1.17003
 2.3222 2.36088 1.17003 2.37369 2.33136 4.48584 2.37369 2.33136 4.48584 2.37369 2.33136 4.48584 2.37369 2.33136 4.48584 2.37369 2.33136 4.48584 2.37369 2.33136
 4.48584 2.37369 2.33136 4.48584 2.37369 2.33136 4.48584 2.37369 2.33136 4.48584 2.37369 2.33136 4.48584 2.37369 2.33136 4.48584 2.37369 2.33136 4.48584 2.37369
 2.33136 4.48584 2.37369 2.33136 4.48584 2.37369 2.33136 4.48584 2.37369 2.33136 4.48584 2.37369 2.33136 4.48584 2.37369 2.33136 4.48584 2.37369 2.33136 4.48584
 2.3222 2.36088 1.17003 2.3222 2.36088 1.17003 2.3222 2.36088 1.17003 2.3222 2.36088 1.17003 2.3222 2.36088 1.17003 2.3222 2.36088 1.17003 2.3222 2.36088
 1.17003 2.3222 2.36088 1.17003 2.3222 2.36088 1.17003 2.3222 2.36088 1.17003 2.3222 2.36088 1.17003 2.3222 2.36088 1.17003 2.3222 2.36088 1.17003 2.3222
 2.36088 1.17003 2.3222 2.36088 1.17003 2.3222 2.36088 1.17003 2.3222 2.36088 1.17003 2.3222 2.36088 1.17003 2.3222 2.36088 1.17003 2.3222 2.36088 1.17003
 2.3222 2.36088 1.17003 2.37369 2.33136 4.48584 2.37369 2.33136 4.48584 2.37369 2.33136 4.48584 2.37369 2.33136 4.48584 2.37369 2.33136 4.48584 2.37369 2.33136
 4.48584 2.37369 2.33136 4.48584 2.37369 2.33136 4.48584 2.37369 2.33136 4.48584 2.37369 2.33136 4.48584 2.37369 2.33136 4.48584 2.37369 2.33136 4.48584 2.37369
 2.33136 4.48584 2.37369 2.33136 4.48584 2.37369 2.33136 4.48584 2.37369 2.33136 4.48584 2.37369 2.33136 4.48584 2.37369 2.33136 4.48584 2.37369 2.33136 4.48584
 2.3222 2.36088 1.17003 2.3222 2.36088 1.17003 2.3222 2.36088 1.17003 2.3222 2.36088 1.17003 2.3222 2.36088 1.17003 2.3222 2.36088 1.17003 2.3222 2.36088
 1.17003 2.3222 2.36088 1.17003 2.3222 2.36088 1.17003 2.3222 2.36088 1.17003 2.3222 2.36088 1.17003 2.3222 2.36088 1.17003 2.3222 2.36088 1.17003 2.3222
 2.36088 1.17003 2.3222 2.36088 1.17003 2.3222 2.36088 1.17003 2.3222 2.36088 1.17003 2.3222 2.36088 1.17003 2.3222 2.36088 1.17003 2.3222 2.36088 1.17003
 2.3222 2.36088 1.17003 2.3222 2.36088 1.17003 2.37369 2.33136 4.48584 2.37369 2.33136 4.48584 2.37369 2.33136 4.48584 2.37369 2.33136 4.48584 2.37369 2.33136
 4.48584 2.37369 2.33136 4.48584 2.37369 2.33136 4.48584 2.37369 2.33136 4.48584 2.37369 2.33136 4.48584 2.37369 2.33136 4.48584 2.37369 2.33136 4.48584 2.37369
 2.33136 4.48584 2.37369 2.33136 4.48584 2.37369 2.33136 4.48584 2.37369 2.33136 4.48584 2.37369 2.33136 4.48584 2.37369 2.33136 4.48584 2.37369 2.33136 4.48584
 2.3222 2.36088 1.17003 2.3222 2.36088 1.17003 2.3222 2.36088 1.17003 2.3222 2.36088 1.17003 2.3222 2.36088 1.17003 2.3222 2.36088 1.17003 2.3222 2.36088
 1.17003 2.3222 2.36088 1.17003 2.3222 2.36088 1.17003 2.3222 2.36088 1.17003 2.3222 2.36088 1.17003 2.3222 2.36088 1.17003 2.3222 2.36088 1.17003 2.3222
 2.36088 1.17003 2.3222 2.36088 1.17003 2.3222 2.36088 1.17003 2.3222 2.36088 1.17003 2.3222 2.36088 1.17003 2.3222 2.36088 1.17003 2.3222 2.36088 1.17003
 2.3222 2.36088 1.17003 2.3222 2.36088 1.17003 2.3222 2.36088 1.17003 2.37369 2.33136 4.48584 2.37369 2.33136 4.48584 2.37369 2.33136 4.48584 2.37369 2.33136
 4.48584 2.37369 2.33136 4.48584 2.37369 2.33136 4.48584 2.37369 2.33136 4.48584 2.37369 2.33136 4.48584 2.37369 2.33136 4.48584 2.37369 2.33136 4.48584 2.37369
 2.33136 4.48584 2.37369 2.33136 4.48584 2.37369 2.33136 4.48584 2.37369 2.33136 4.48584 2.37369 2.33136 4.48584 2.37369 2.33136 4.48584 2.37369 2.33136 4.48584
 2.3222 2.36088 1.17003 2.3222 2.36088 1.17003 2.3222 2.36088 1.17003 2.3222 2.36088 1.17003 2.3222 2.36088 1.17003 2.3222 2.36088 1.17003 2.3222 2.36088
 1.17003 2.3222 2.36088 1.17003 2.3222 2.36088 1.17003 2.3222 2.36088 1.17003 2.3222 2.36088 1.17003 2.3222 2.36088 1.17003 2.3222 2.36088 1.17003 2.3222
 2.36088 1.17003 2.3222 2.36088 1.17003 2.3222 2.36088 1.17003 2.3222 2.36088 1.17003 2.3222 2.36088 1.17003 2.3222 2.36088 1.17003 2.3222 2.36088 1.17003
 2.3222 2.36088 1.17003 2.3222 2.36088 1.17003 2.3222 2.36088 1.17003 2.3222 2.36088 1.17003 2.37369 2.33136 4.48584 2.37369 2.33136 4.48584 2.37369 2.33136
 4.48584 2.37369 2.33136 4.48584 2.37369 2.33136 4.48584 2.37369 2.33136 4.48584 2.37369 2.33136 4.48584 2.37369 2.33136 4.48584 2.37369 2.33136 4.48584 2.37369
 2.33136 4.48584 2.37369 2.33136 4.48584 2.37369 2.33136 4.48584 2.37369 2.33136 4.48584 2.37369 2.33136 4.48584 2.37369 2.33136 4.48584 2.37369 2.33136 4.48584
 2.3222 2.36088 1.17003 2.3222 2.36088 1.17003 2.3222 2.36088 1.17003 2.3222 2.36088 1.17003 2.3222 2.36088 1.17003 2.3222 2.36088 1.17003 2.3222 2.36088
 1.17003 2.3222 2.36088 1.17003 2.3222 2.36088 1.17003 2.3222 2.36088 1.17003 2.3222 2.36088 1.17003 2.3222 2.36088 1.17003 2.3222 2.36088 1.17003 2.3222
 2.36088 1.17003 2.3222 2.36088 1.17003 2.3222 2.36088 1.17003 2.3222 2.36088 1.17003 2.3222 2.36088 1.17003 2.3222 2.36088 1.17003 2.3222 2.36088 1.17003
 2.3222 2.36088 1.17003 2.3222 2.36088 1.17003 2.3222 2.36088 1.17003 2.3222 2.36088 1.17003 2.37369 2.33136 4.48584 2.37369 2.33136 4.48584 2.37369 2.33136
 4.48584 2.37369 2.33136 4.48584 2.37369 2.33136 4.48584 2.37369 2.33136 4.48584 2.37369 2.33136 4.48584 2.37369 2.33136 4.48584 2.37369 2.33136 4.48584 2.37369
 2.33136 4.48584 2.37369 2.33136 4.48584 2.37369 2.33136 4.48584 2.37369 2.33136 4.48584 2.37369 2.33136 4.48584 2.37369 2.33136 4.48584 2.37369 2.33136 4.48584
 2.3222 2.36088 1.17003 2.3222 2.36088 1.17003 2.3222 2.36088 1.17003 2.3222 2.36088 1.17003 2.3222 2.36088 1.17003 2.3222 2.36088 1.17003 2.3222 2.36088
 1.17003 2.3222 2.36088 1.17003 2.3222 2.36088 1.17003 2.3222 2.36088 1.17003 2.3222 2.36088 1.17003 2.3222 2.36088 1.17003 2.3222 2.36088 1.17003 2.3222
 2.36088 1.17003 2.3222 2.36088 1.17003 2.3222 2.36088 1.17003 2.3222 2.36088 1.17003 2.3222 2.36088 1.17003 2.3222 2.36088 1.17003 2.3222 2.36088 1.17003
 2.3222 2.36088 1.17003 2.3222 2.36088 1.17003 2.3222 2.36088 1.17003 2.3222 2.36088 1.17003 2.3222 2.36088 1.17003 2.37369 2.33136 4.48584 2.37369 2.33136
 4.48584 2.37369 2.33136 4.48584 2.37369 2.33136 4.48584 2.37369 2.33136 4.48584 2.37369 2.33136 4.48584 2.37369 2.33136 4.48584 2.37369 2.33136 4.48584 2.37369
 2.33136 4.48584 2.37369 2.33136 4.48584 2.37369 2.33136 4.48584 2.37369 2.33136 4.48584 2.37369 2.33136 4.48584 2.37369 2.33136 4.48584 2.37369 2.33136 4.48584
 2.3222 2.36088 1.17003 2.3222 2.36088 1.17003 2.3222 2.36088 1.17003 2.3222 2.36088 1.17003 2.3222 2.36088 1.17003 2.3222 2.36088 1.17003 2.3222 2.36088
 1.17003 2.3222 2.36088 1.17003 2.3222 2.36088 1.17003 2.3222 2.36088 1.17003 2.3222 2.36088 1.17003 2.3222 2.36088 1.17003 2.3222 2.36088 1.17003 2.3222
 2.36088 1.17003 2.3222 2.36088 1.17003 2.3222 2.36088 1.17003 2.3222 2.36088 1.17003 2.3222 2.36088 1.17003 2.3222 2.36088 1.17003 2.3222 2.36088 1.17003
 2.3222 2.36088 1.17003 2.3222 2.36088 1.17003 2.3222 2.36088 1.17003 2.3222 2.36088 1.17003 2.3222 2.36088 1.17003 2.3222 2.36088 1.17003 2.37369 2.33136
 4.48584 2.37369 2.33136 4.48584 2.37369 2.33136 4.48584 2.37369 2.33136 4.48584 2.37369 2.33136 4.48584 2.37369 2.33136 4.48584 2.37369 2.33136 4.48584 2.37369
 2.33136 4.48584 2.37369 2.33136 4.48584 2.37369 2.33136 4.48584 2.37369 2.33136 4.48584 2.37369 2.33136 4.48584 2.37369 2.33136 4.48584 2.37369 2.33136 4.48584
 2.3222 2.36088 1.17003 2.3222 2.36088 1.17003 2.3222 2.36088 1.17003 2.3222 2.36088 1.17003 2.3222 2.36088 1.17003 2.3222 2.36088 1.17003 2.3222 2.36088
 1.17003 2.3222 2.36088 1.17003 2.3222 2.36088 1.17003 2.3222 2.36088 1.17003 2.3222 2.36088 1.17003 2.3222 2.36088 1.17003 2.3222 2.36088 1.17003 2.3222
 2.36088 1.17003 2.3222 2.36088 1.17003 2.3222 2.36088 1.17003 2.3222 2.36088 1.17003 2.3222 2.36088 1.17003 2.3222 2.36088 1.17003 2.3222 2.36088 1.17003
 2.3222 2.36088 1.17003 2.3222 2.36088 1.17003 2.3222 2.36088 1.17003 2.3222 2.36088 1.17003 2.3222 2.36088 1.17003 2.3222 2.36088 1.17003 2.37369 2.33136
 4.48584 2.37369 2.33136 4.48584 2.37369 2.33136 4.48584 2.37369 2.33136 4.48584 2.37369 2.33136 4.48584 2.37369 2.33136 4.48584 2.37369 2.33136 4.48584 2.37369
 2.33136 4.48584 2.37369 2.33136 4.48584 2.37369 2.33136 4.48584 2.37369 2.33136 4.48584 2.37369 2.33136 4.48584 2.37369 2.33136 4.48584 2.37369 2.33136 4.48584
 2.3222 2.36088 1.17003 2.3222 2.36088 1.17003 2.3222 2.36088 1.17003 2.3222 2.36088 1.17003 2.3222 2.36088 1.17003 2.3222 2.36088 1.17003 2.3222 2.36088
 1.17003 2.3222 2.36088 1.17003 2.3222 2.36088 1.17003 2.3222 2.36088 1.17003 2.3222 2.36088 1.17003 2.3222 2.36088 1.17003 2.3222 2.36088 1.17003 2.3222
 2.36088 1.17003 2.3222 2.36088 1.17003 2.3222 2.36088 1.17003 2.3222 2.36088 1.17003 2.3222 2.36088 1.17003 2.3222 2.36088 1.17003 2.3222 2.36088 1.17003
 2.3222 2.36088 1.17003 2.3222 2.36088 1.17003 2.3222 2.36088 1.17003 2.3222 2.36088 1.17003 2.3222 2.36088 1.17003 2.3222 2.36088 1.17003 2.3222 2.36088
 1.17003 2.37369 2.33136 4.48584 2.37369 2.33136 4.48584 2.37369 2.33136 4.48584 2.37369 2.33136 4.48584 2.37369 2.33136 4.48584 2.37369 2.33136 4.48584 2.37369
 2.33136 4.48584 2.37369 2.33136 4.48584 2.37369 2.33136 4.48584 2.37369 2.33136 4.48584 2.37369 2.33136 4.48584 2.37369 2.33136 4.48584 2.37369 2.33136 4.48584
 2.3222 2.36088 1.17003 2.3222 2.36088 1.17003 2.3222 2.36088 1.17003 2.3222 2.36088 1.17003 2.3222 2.36088 1.17003 2.3222 2.36088 1.17003 2.3222 2.36088
 1.17003 2.3222 2.36088 1.17003 2.3222 2.36088 1.17003 2.3222 2.36088 1.17003 2.3222 2.36088 1.17003 2.3222 2.36088 1.17003 2.3222 2.36088 1.17003 2.3222
 2.36088 1.17003 2.3222 2.36088 1.17003 2.3222 2.36088 1.17003 2.3222 2.36088 1.17003 2.3222 2.36088 1.17003 2.3222 2.36088 1.17003 2.3222 2.36088 1.17003
 2.3222 2.36088 1.17003 2.3222 2.36088 1.17003 2.3222 2.36088 1.17003 2.3222 2.36088 1.17003 2.3222 2.36088 1.17003 2.3222 2.36088 1.17003 2.3222 2.36088
 1.17003 2.3222 2.36088 1.17003 2.37369 2.33136 4.48584 2.37369 2.33136 4.48584 2.37369 2.33136 4.48584 2.37369 2.33136 4.48584 2.37369 2.33136 4.48584 2.37369
 2.33136 4.48584 2.37369 2.33136 4.48584 2.37369 2.33136 4.48584 2.37369 2.33136 4.48584 2.37369 2.33136 4.48584 2.37369 2.33136 4.48584 2.37369 2.33136 4.48584
 2.3222 2.36088 1.17003 2.3222 2.36088 1.17003 2.3222 2.36088 1.17003 2.3222 2.36088 1.17003 2.3222 2.36088 1.17003 2.3222 2.36088 1.17003 2.3222 2.36088
 1.17003 2.3222 2.36088 1.17003 2.3222 2.36088 1.17003 2.3222 2.36088 1.17003 2.3222 2.36088 1.17003 2.3222 2.36088 1.17003 2.3222 2.36088 1.17003 2.3222
 2.36088 1.17003 2.3222 2.36088 1.17003 2.3222 2.36088 1.17003 2.3222 2.36088 1.17003 2.3222 2.36088 1.17003 2.3222 2.36088 1.17003 2.3222 2.36088 1.17003
 2.3222 2.36088 1.17003 2.3222 2.36088 1.17003 2.3222 2.36088 1.17003 2.3222 2.36088 1.17003 2.3222 2.36088 1.17003 2.3222 2.36088 1.17003 2.3222 2.36088
 1.17003 2.3222 2.36088 1.17003 2.37369 2.33136 4.48584 2.37369 2.33136 4.48584 2.37369 2.33136 4.48584 2.37369 2.33136 4.48584 2.37369 2.33136 4.48584 2.37369
 2.33136 4.48584 2.37369 2.33136 4.48584 2.37369 2.33136 4.48584 2.37369 2.33136 4.48584 2.37369 2.33136 4.48584 2.37369 2.33136 4.48584 2.37369 2.33136 4.48584
 2.3222 2.36088 1.17003 2.3222 2.36088 1.17003 2.3222 2.36088 1.17003 2.3222 2.36088 1.17003 2.3222 2.36088 1.17003 2.3222 2.36088 1.17003 2.3222 2.36088
 1.17003 2.3222 2.36088 1.17003 2.3222 2.36088 1.17003 2.3222 2.36088 1.17003 2.3222 2.36088 1.17003 2.3222 2.36088 1.17003 2.3222 2.36088 1.17003 2.3222
 2.36088 1.17003 2.3222 2.36088 1.17003 2.3222 2.36088 1.17003 2.3222 2.36088 1.17003 2.3222 2.36088 1.17003 2.3222 2.36088 1.17003 2.3222 2.36088 1.17003
 2.3222 2.36088 1.17003 2.3222 2.36088 1.17003 2.3222 2.36088 1.17003 2.3222 2.36088 1.17003 2.3222 2.36088 1.17003 2.3222 2.36088 1.17003 2.3222 2.36088
 1.17003 2.3222 2.36088 1.17003 2.3222 2.36088 1.17003 2.37369 2.33136 4.48584 2.37369 2.33136 4.48584 2.37369 2.33136 4.48584 2.37369 2.33136 4.48584 2.37369
 2.33136 4.48584 2.37369 2.33136 4.48584 2.37369 2.33136 4.48584 2.37369 2.33136 4.48584 2.37369 2.33136 4.48584 2.37369 2.33136 4.48584 2.37369 2.33136 4.48584
 2.3222 2.36088 1.17003 2.3222 2.36088 1.17003 2.3222 2.36088 1.17003 2.3222 2.36088 1.17003 2.3222 2.36088 1.17003 2.3222 2.36088 1.17003 2.3222 2.36088
 1.17003 2.3222 2.36088 1.17003 2.3222 2.36088 1.17003 2.3222 2.36088 1.17003 2.3222 2.36088 1.17003 2.3222 2.36088 1.17003 2.3222 2.36088 1.17003 2.3222